
     Program BANDS v.6.7MaX starts on 28Mar2022 at 12:23:49 

     This program is part of the open-source Quantum ESPRESSO suite
     for quantum simulation of materials; please cite
         "P. Giannozzi et al., J. Phys.:Condens. Matter 21 395502 (2009);
         "P. Giannozzi et al., J. Phys.:Condens. Matter 29 465901 (2017);
          URL http://www.quantum-espresso.org", 
     in publications or presentations arising from this work. More details at
     http://www.quantum-espresso.org/quote

     Parallel version (MPI), running on     1 processors

     MPI processes distributed on     1 nodes

     Reading xml data from directory:

     ./Raw_data/Ge.save/
     file Ge.pbe-dn-kjpaw_psl.1.0.0.UPF: wavefunction(s)  4S 4P 3D renormalized

     IMPORTANT: XC functional enforced from input :
     Exchange-correlation= PBE
                           (   1   4   3   4   0   0   0)
     Any further DFT definition will be discarded
     Please, verify this is what you really want


     G-vector sticks info
     --------------------
     sticks:   dense  smooth     PW     G-vecs:    dense   smooth      PW
     Sum         847     847    253                16361    16361    2685


     Check: negative core charge=   -0.000006
     Reading collected, re-writing distributed wavefunctions
     high-symmetry point:  0.5000 0.5000 0.5000   x coordinate   0.0000
     high-symmetry point:  0.0000 0.0000 0.0000   x coordinate   0.8660
     high-symmetry point:  0.0000 0.0000 1.0000   x coordinate   1.8660
     high-symmetry point: -0.2250 0.2750 1.0250   x coordinate   2.2222

     Plottable bands (eV) written to file BandX.dat.gnu
     Bands written to file BandX.dat

 **************************************************************************

                    xk=(   0.50000,   0.50000,   0.50000  )

     zone border point and non-symmorphic group 
     symmetry decomposition not available

 **************************************************************************

 **************************************************************************

                    xk=(   0.48750,   0.48750,   0.48750  )

     point group C_3v (3m)  
     there are  3 classes
     the character table:

       E     2C3   3s_v 
A_1    1.00  1.00  1.00
A_2    1.00  1.00 -1.00
E      2.00 -1.00  0.00

     the symmetry operations in each class and the name of the first element:

     E        1
                                                                 
     2C3      2    3
                                                                 
     3s_v     4    5    6
                                                                 

     Band symmetry, C_3v (3m)   point group:

     e(  1 -  2) =    -17.68932  eV     2   --> E    L_3       
     e(  3 -  3) =    -17.65671  eV     1   -->   ?
     e(  4 -  4) =    -17.61302  eV     1   -->   ?

 **************************************************************************

 **************************************************************************

                    xk=(   0.47500,   0.47500,   0.47500  )

     Band symmetry, C_3v (3m)   point group:

     e(  1 -  2) =    -17.68929  eV     2   -->   ?
     e(  3 -  3) =    -17.65676  eV     1   -->   ?
     e(  4 -  4) =    -17.61308  eV     1   -->   ?

 **************************************************************************

 **************************************************************************

                    xk=(   0.46250,   0.46250,   0.46250  )

     Band symmetry, C_3v (3m)   point group:

     e(  1 -  2) =    -17.68924  eV     2   -->   ?
     e(  3 -  3) =    -17.65689  eV     1   -->   ?
     e(  4 -  4) =    -17.61319  eV     1   -->   ?

 **************************************************************************

 **************************************************************************

                    xk=(   0.45000,   0.45000,   0.45000  )

     Band symmetry, C_3v (3m)   point group:

     e(  1 -  2) =    -17.68917  eV     2   -->   ?
     e(  3 -  3) =    -17.65705  eV     1   -->   ?
     e(  4 -  4) =    -17.61334  eV     1   -->   ?

 **************************************************************************

 **************************************************************************

                    xk=(   0.43750,   0.43750,   0.43750  )

     Band symmetry, C_3v (3m)   point group:

     e(  1 -  2) =    -17.68907  eV     2   --> E    L_3       
     e(  3 -  3) =    -17.65768  eV     1   -->   ?
     e(  4 -  4) =    -17.61357  eV     1   -->   ?

 **************************************************************************

 **************************************************************************

                    xk=(   0.42500,   0.42500,   0.42500  )

     Band symmetry, C_3v (3m)   point group:

     e(  3 -  3) =    -17.65793  eV     1   -->   ?
     e(  4 -  4) =    -17.61383  eV     1   -->   ?

 **************************************************************************

 **************************************************************************

                    xk=(   0.41250,   0.41250,   0.41250  )

     Band symmetry, C_3v (3m)   point group:

     e(  1 -  2) =    -17.68882  eV     2   -->   ?
     e(  3 -  3) =    -17.65823  eV     1   --> A_1  L_1       
     e(  4 -  4) =    -17.61413  eV     1   -->   ?

 **************************************************************************

 **************************************************************************

                    xk=(   0.40000,   0.40000,   0.40000  )

     Band symmetry, C_3v (3m)   point group:

     e(  3 -  3) =    -17.65851  eV     1   -->   ?
     e(  4 -  4) =    -17.61470  eV     1   -->   ?

 **************************************************************************

 **************************************************************************

                    xk=(   0.38750,   0.38750,   0.38750  )

     Band symmetry, C_3v (3m)   point group:

     e(  1 -  2) =    -17.68836  eV     2   -->   0 A_1  L_1       
     e(  3 -  3) =    -17.65883  eV     1   -->   ?
     e(  4 -  4) =    -17.61494  eV     1   -->   ?

 **************************************************************************

 **************************************************************************

                    xk=(   0.37500,   0.37500,   0.37500  )

     Band symmetry, C_3v (3m)   point group:

     e(  1 -  2) =    -17.68814  eV     2   --> E    L_3       
     e(  3 -  3) =    -17.65923  eV     1   -->   ?
     e(  4 -  4) =    -17.61540  eV     1   -->   ?

 **************************************************************************

 **************************************************************************

                    xk=(   0.36250,   0.36250,   0.36250  )

     Band symmetry, C_3v (3m)   point group:

     e(  1 -  2) =    -17.68773  eV     2   -->   ?
     e(  3 -  3) =    -17.65964  eV     1   -->   ?
     e(  4 -  4) =    -17.61592  eV     1   -->   ?

 **************************************************************************

 **************************************************************************

                    xk=(   0.35000,   0.35000,   0.35000  )

     Band symmetry, C_3v (3m)   point group:

     e(  1 -  2) =    -17.68745  eV     2   --> E    L_3       
     e(  3 -  3) =    -17.65970  eV     1   -->   ?
     e(  4 -  4) =    -17.61646  eV     1   -->   ?

 **************************************************************************

 **************************************************************************

                    xk=(   0.33750,   0.33750,   0.33750  )

     Band symmetry, C_3v (3m)   point group:

     e(  1 -  2) =    -17.68714  eV     2   -->   ?
     e(  3 -  3) =    -17.66011  eV     1   -->   ?
     e(  4 -  4) =    -17.61708  eV     1   -->   ?

 **************************************************************************

 **************************************************************************

                    xk=(   0.32500,   0.32500,   0.32500  )

     Band symmetry, C_3v (3m)   point group:

     e(  1 -  2) =    -17.68680  eV     2   -->   ?
     e(  3 -  3) =    -17.66064  eV     1   -->   ?
     e(  4 -  4) =    -17.61779  eV     1   -->   ?

 **************************************************************************

 **************************************************************************

                    xk=(   0.31250,   0.31250,   0.31250  )

     Band symmetry, C_3v (3m)   point group:

     e(  1 -  2) =    -17.68642  eV     2   -->   ?
     e(  3 -  3) =    -17.66116  eV     1   -->   ?
     e(  4 -  4) =    -17.61857  eV     1   -->   ?

 **************************************************************************

 **************************************************************************

                    xk=(   0.30000,   0.30000,   0.30000  )

     Band symmetry, C_3v (3m)   point group:

     e(  3 -  3) =    -17.66184  eV     1   -->   ?
     e(  4 -  4) =    -17.61948  eV     1   -->   ?

 **************************************************************************

 **************************************************************************

                    xk=(   0.28750,   0.28750,   0.28750  )

     Band symmetry, C_3v (3m)   point group:

     e(  1 -  2) =    -17.68554  eV     2   -->   ?
     e(  3 -  3) =    -17.66226  eV     1   --> A_1  L_1       
     e(  4 -  4) =    -17.62055  eV     1   -->   ?

 **************************************************************************

 **************************************************************************

                    xk=(   0.27500,   0.27500,   0.27500  )

     Band symmetry, C_3v (3m)   point group:

     e(  1 -  2) =    -17.68512  eV     2   -->   ?
     e(  3 -  3) =    -17.66278  eV     1   -->   ?
     e(  4 -  4) =    -17.62153  eV     1   -->   ?

 **************************************************************************

 **************************************************************************

                    xk=(   0.26250,   0.26250,   0.26250  )

     Band symmetry, C_3v (3m)   point group:

     e(  1 -  2) =    -17.68471  eV     2   -->   ?
     e(  3 -  3) =    -17.66333  eV     1   -->   ?
     e(  4 -  4) =    -17.62243  eV     1   -->   ?

 **************************************************************************

 **************************************************************************

                    xk=(   0.25000,   0.25000,   0.25000  )

     Band symmetry, C_3v (3m)   point group:

     e(  1 -  2) =    -17.68415  eV     2   -->   ?
     e(  3 -  3) =    -17.66390  eV     1   -->   ?
     e(  4 -  4) =    -17.62349  eV     1   -->   ?

 **************************************************************************

 **************************************************************************

                    xk=(   0.23750,   0.23750,   0.23750  )

     Band symmetry, C_3v (3m)   point group:

     e(  3 -  3) =    -17.66461  eV     1   -->   ?
     e(  4 -  4) =    -17.62466  eV     1   -->   ?

 **************************************************************************

 **************************************************************************

                    xk=(   0.22500,   0.22500,   0.22500  )

     Band symmetry, C_3v (3m)   point group:

     e(  1 -  2) =    -17.68300  eV     2   -->   ?
     e(  3 -  3) =    -17.66517  eV     1   -->   ?
     e(  4 -  4) =    -17.62583  eV     1   -->   ?

 **************************************************************************

 **************************************************************************

                    xk=(   0.21250,   0.21250,   0.21250  )

     Band symmetry, C_3v (3m)   point group:

     e(  1 -  2) =    -17.68229  eV     2   -->   ?
     e(  3 -  3) =    -17.66568  eV     1   -->   ?
     e(  4 -  4) =    -17.62702  eV     1   -->   ?

 **************************************************************************

 **************************************************************************

                    xk=(   0.20000,   0.20000,   0.20000  )

     Band symmetry, C_3v (3m)   point group:

     e(  3 -  3) =    -17.66616  eV     1   -->   ?
     e(  4 -  4) =    -17.62808  eV     1   -->   ?

 **************************************************************************

 **************************************************************************

                    xk=(   0.18750,   0.18750,   0.18750  )

     Band symmetry, C_3v (3m)   point group:

     e(  1 -  2) =    -17.68097  eV     2   -->   ?
     e(  3 -  3) =    -17.66664  eV     1   -->   ?
     e(  4 -  4) =    -17.62934  eV     1   -->   ?

 **************************************************************************

 **************************************************************************

                    xk=(   0.17500,   0.17500,   0.17500  )

     Band symmetry, C_3v (3m)   point group:

     e(  1 -  2) =    -17.68020  eV     2   -->   0 A_1  L_1       
     e(  3 -  3) =    -17.66713  eV     1   --> A_1  L_1       
     e(  4 -  4) =    -17.63062  eV     1   -->   ?

 **************************************************************************

 **************************************************************************

                    xk=(   0.16250,   0.16250,   0.16250  )

     Band symmetry, C_3v (3m)   point group:

     e(  1 -  2) =    -17.67935  eV     2   -->   ?
     e(  3 -  3) =    -17.66755  eV     1   -->   ?
     e(  4 -  4) =    -17.63191  eV     1   -->   ?

 **************************************************************************

 **************************************************************************

                    xk=(   0.15000,   0.15000,   0.15000  )

     Band symmetry, C_3v (3m)   point group:

     e(  1 -  2) =    -17.67853  eV     2   -->   ?
     e(  3 -  3) =    -17.66799  eV     1   -->   ?
     e(  4 -  4) =    -17.63321  eV     1   -->   ?

 **************************************************************************

 **************************************************************************

                    xk=(   0.13750,   0.13750,   0.13750  )

     Band symmetry, C_3v (3m)   point group:

     e(  1 -  1) =    -17.67770  eV     1   -->   ?
     e(  2 -  2) =    -17.67759  eV     1   -->   ?
     e(  3 -  3) =    -17.66844  eV     1   -->   ?
     e(  4 -  4) =    -17.63451  eV     1   -->   ?

 **************************************************************************

 **************************************************************************

                    xk=(   0.12500,   0.12500,   0.12500  )

     Band symmetry, C_3v (3m)   point group:

     e(  1 -  2) =    -17.67686  eV     2   --> E    L_3       
     e(  3 -  3) =    -17.66883  eV     1   -->   ?
     e(  4 -  4) =    -17.63579  eV     1   -->   ?

 **************************************************************************

 **************************************************************************

                    xk=(   0.11250,   0.11250,   0.11250  )

     Band symmetry, C_3v (3m)   point group:

     e(  1 -  1) =    -17.67604  eV     1   -->   ?
     e(  2 -  2) =    -17.67591  eV     1   -->   ?
     e(  3 -  3) =    -17.66949  eV     1   -->   ?
     e(  4 -  4) =    -17.63703  eV     1   -->   ?

 **************************************************************************

 **************************************************************************

                    xk=(   0.10000,   0.10000,   0.10000  )

     Band symmetry, C_3v (3m)   point group:

     e(  1 -  2) =    -17.67525  eV     2   -->   ?
     e(  3 -  3) =    -17.66983  eV     1   -->   ?
     e(  4 -  4) =    -17.63825  eV     1   -->   ?

 **************************************************************************

 **************************************************************************

                    xk=(   0.08750,   0.08750,   0.08750  )

     Band symmetry, C_3v (3m)   point group:

     e(  1 -  2) =    -17.67451  eV     2   -->   ?
     e(  3 -  3) =    -17.67014  eV     1   -->   ?
     e(  4 -  4) =    -17.63944  eV     1   -->   ?

 **************************************************************************

 **************************************************************************

                    xk=(   0.07500,   0.07500,   0.07500  )

     Band symmetry, C_3v (3m)   point group:

     e(  1 -  2) =    -17.67376  eV     2   -->   ?
     e(  3 -  3) =    -17.67039  eV     1   -->   ?
     e(  4 -  4) =    -17.64049  eV     1   -->   ?

 **************************************************************************

 **************************************************************************

                    xk=(   0.06250,   0.06250,   0.06250  )

     Band symmetry, C_3v (3m)   point group:

     e(  1 -  2) =    -17.67315  eV     2   -->   ?
     e(  3 -  3) =    -17.67062  eV     1   -->   ?
     e(  4 -  4) =    -17.64147  eV     1   -->   ?

 **************************************************************************

 **************************************************************************

                    xk=(   0.05000,   0.05000,   0.05000  )

     Band symmetry, C_3v (3m)   point group:

     e(  1 -  2) =    -17.67262  eV     2   -->   ?
     e(  3 -  3) =    -17.67076  eV     1   -->   ?
     e(  4 -  4) =    -17.64233  eV     1   -->   ?

 **************************************************************************

 **************************************************************************

                    xk=(   0.03750,   0.03750,   0.03750  )

     Band symmetry, C_3v (3m)   point group:

     e(  1 -  2) =    -17.67214  eV     2   -->   ?
     e(  3 -  3) =    -17.67125  eV     1   --> A_1  L_1       
     e(  4 -  4) =    -17.64307  eV     1   -->   ?

 **************************************************************************

 **************************************************************************

                    xk=(   0.02500,   0.02500,   0.02500  )

     Band symmetry, C_3v (3m)   point group:

     e(  1 -  2) =    -17.67176  eV     2   -->   ?
     e(  3 -  3) =    -17.67135  eV     1   -->   ?
     e(  4 -  4) =    -17.64357  eV     1   -->   ?

 **************************************************************************

 **************************************************************************

                    xk=(   0.01250,   0.01250,   0.01250  )

     Band symmetry, C_3v (3m)   point group:

     e(  1 -  3) =    -17.67152  eV     3   -->   ?
     e(  4 -  4) =    -17.64388  eV     1   -->   ?

 **************************************************************************

 **************************************************************************

                    xk=(   0.00000,   0.00000,   0.00000  )

     point group O_h (m-3m) 
     there are 10 classes
     the character table:

       E     8C3   3C2   6C4   6C2'  i     8S6   3s_h  6S4   6s_d 
A_1g   1.00  1.00  1.00  1.00  1.00  1.00  1.00  1.00  1.00  1.00
A_2g   1.00  1.00  1.00 -1.00 -1.00  1.00  1.00  1.00 -1.00 -1.00
E_g    2.00 -1.00  2.00  0.00  0.00  2.00 -1.00  2.00  0.00  0.00
T_1g   3.00  0.00 -1.00  1.00 -1.00  3.00  0.00 -1.00  1.00 -1.00
T_2g   3.00  0.00 -1.00 -1.00  1.00  3.00  0.00 -1.00 -1.00  1.00
A_1u   1.00  1.00  1.00  1.00  1.00 -1.00 -1.00 -1.00 -1.00 -1.00
A_2u   1.00  1.00  1.00 -1.00 -1.00 -1.00 -1.00 -1.00  1.00  1.00
E_u    2.00 -1.00  2.00  0.00  0.00 -2.00  1.00 -2.00  0.00  0.00
T_1u   3.00  0.00 -1.00  1.00 -1.00 -3.00  0.00  1.00 -1.00  1.00
T_2u   3.00  0.00 -1.00 -1.00  1.00 -3.00  0.00  1.00  1.00 -1.00

     the symmetry operations in each class and the name of the first element:

     E        1
                                                                 
     8C3     17   19   20   18   24   21   22   23
                                                                 
     3C2      2    4    3
                                                                 
     6C4      7    8   15   16   12   11
                                                                 
     6C2'     5    6   14   13   10    9
                                                                 
     i       25
                                                                 
     8S6     41   43   44   42   48   45   46   47
                                                                 
     3s_h    26   28   27
                                                                 
     6S4     31   32   39   40   36   35
                                                                 
     6s_d    29   30   38   37   34   33
                                                                 

     Band symmetry, O_h (m-3m)  point group:

     e(  1 -  2) =    -17.67144  eV     2   -->   ?
     e(  3 -  3) =    -17.67129  eV     1   -->   ?
     e(  4 -  4) =    -17.64399  eV     1   -->   ?

 **************************************************************************

 **************************************************************************

                    xk=(   0.00000,   0.00000,   0.02500  )

     point group C_4v (4mm) 
     there are  5 classes
     the character table:

       E     2C4   C2    2s_v  2s_d 
A_1    1.00  1.00  1.00  1.00  1.00
A_2    1.00  1.00  1.00 -1.00 -1.00
B_1    1.00 -1.00  1.00  1.00 -1.00
B_2    1.00 -1.00  1.00 -1.00  1.00
E      2.00  0.00 -2.00  0.00  0.00

     the symmetry operations in each class and the name of the first element:

     E        1
                                                                 
     2C4      3    4
                                                                 
     C2       2
                                                                 
     2s_v     5    6
                                                                 
     2s_d     7    8
                                                                 

     Band symmetry, C_4v (4mm)  point group:

     e(  4 -  4) =    -17.64385  eV     1   -->   ?

 **************************************************************************

 **************************************************************************

                    xk=(   0.00000,   0.00000,   0.05000  )

     Band symmetry, C_4v (4mm)  point group:

     e(  1 -  1) =    -17.67177  eV     1   -->   ?
     e(  2 -  3) =    -17.67162  eV     2   -->   ?
     e(  4 -  4) =    -17.64373  eV     1   -->   ?

 **************************************************************************

 **************************************************************************

                    xk=(   0.00000,   0.00000,   0.07500  )

     Band symmetry, C_4v (4mm)  point group:

     e(  2 -  3) =    -17.67176  eV     2   -->   ?
     e(  4 -  4) =    -17.64295  eV     1   -->   ?

 **************************************************************************

 **************************************************************************

                    xk=(   0.00000,   0.00000,   0.10000  )

     Band symmetry, C_4v (4mm)  point group:

     e(  1 -  1) =    -17.67268  eV     1   --> B_2  G_4 D_2'  
     e(  4 -  4) =    -17.64294  eV     1   -->   ?

 **************************************************************************

 **************************************************************************

                    xk=(   0.00000,   0.00000,   0.12500  )

     Band symmetry, C_4v (4mm)  point group:

     e(  1 -  1) =    -17.67304  eV     1   -->   ?
     e(  2 -  3) =    -17.67229  eV     2   -->   ?
     e(  4 -  4) =    -17.64234  eV     1   -->   ?

 **************************************************************************

 **************************************************************************

                    xk=(   0.00000,   0.00000,   0.15000  )

     Band symmetry, C_4v (4mm)  point group:

     e(  1 -  1) =    -17.67380  eV     1   --> B_2  G_4 D_2'  
     e(  2 -  3) =    -17.67282  eV     2   -->   ?
     e(  4 -  4) =    -17.64056  eV     1   -->   ?

 **************************************************************************

 **************************************************************************

                    xk=(   0.00000,   0.00000,   0.17500  )

     Band symmetry, C_4v (4mm)  point group:

     e(  4 -  4) =    -17.64036  eV     1   -->   ?

 **************************************************************************

 **************************************************************************

                    xk=(   0.00000,   0.00000,   0.20000  )

     Band symmetry, C_4v (4mm)  point group:

     e(  1 -  1) =    -17.67479  eV     1   -->   ?
     e(  2 -  3) =    -17.67386  eV     2   -->   ?
     e(  4 -  4) =    -17.63956  eV     1   -->   ?

 **************************************************************************

 **************************************************************************

                    xk=(   0.00000,   0.00000,   0.22500  )

     Band symmetry, C_4v (4mm)  point group:

     e(  1 -  1) =    -17.67527  eV     1   -->   ?
     e(  2 -  3) =    -17.67457  eV     2   -->   ?
     e(  4 -  4) =    -17.63866  eV     1   -->   ?

 **************************************************************************

 **************************************************************************

                    xk=(   0.00000,   0.00000,   0.25000  )

     Band symmetry, C_4v (4mm)  point group:

     e(  1 -  1) =    -17.67571  eV     1   -->   ?
     e(  2 -  3) =    -17.67512  eV     2   -->   ?
     e(  4 -  4) =    -17.63747  eV     1   -->   ?

 **************************************************************************

 **************************************************************************

                    xk=(   0.00000,   0.00000,   0.27500  )

     Band symmetry, C_4v (4mm)  point group:

     e(  1 -  1) =    -17.67602  eV     1   -->   ?
     e(  2 -  3) =    -17.67590  eV     2   -->   ?
     e(  4 -  4) =    -17.63598  eV     1   -->   ?

 **************************************************************************

 **************************************************************************

                    xk=(   0.00000,   0.00000,   0.30000  )

     Band symmetry, C_4v (4mm)  point group:

     e(  1 -  2) =    -17.67676  eV     2   -->   ?
     e(  3 -  3) =    -17.67629  eV     1   -->   ?
     e(  4 -  4) =    -17.63463  eV     1   -->   ?

 **************************************************************************

 **************************************************************************

                    xk=(   0.00000,   0.00000,   0.32500  )

     Band symmetry, C_4v (4mm)  point group:

     e(  1 -  2) =    -17.67768  eV     2   -->   ?
     e(  3 -  3) =    -17.67654  eV     1   --> B_2  G_4 D_2'  
     e(  4 -  4) =    -17.63306  eV     1   -->   ?

 **************************************************************************

 **************************************************************************

                    xk=(   0.00000,   0.00000,   0.35000  )

     Band symmetry, C_4v (4mm)  point group:

     e(  1 -  2) =    -17.67861  eV     2   --> E    G_5 D_5   
     e(  3 -  3) =    -17.67658  eV     1   --> B_2  G_4 D_2'  
     e(  4 -  4) =    -17.63145  eV     1   -->   ?

 **************************************************************************

 **************************************************************************

                    xk=(   0.00000,   0.00000,   0.37500  )

     Band symmetry, C_4v (4mm)  point group:

     e(  1 -  2) =    -17.67951  eV     2   --> E    G_5 D_5   
     e(  3 -  3) =    -17.67630  eV     1   --> B_2  G_4 D_2'  
     e(  4 -  4) =    -17.62977  eV     1   -->   ?

 **************************************************************************

 **************************************************************************

                    xk=(   0.00000,   0.00000,   0.40000  )

     Band symmetry, C_4v (4mm)  point group:

     e(  1 -  2) =    -17.68051  eV     2   --> E    G_5 D_5   
     e(  3 -  3) =    -17.67607  eV     1   --> B_2  G_4 D_2'  
     e(  4 -  4) =    -17.62786  eV     1   -->   ?

 **************************************************************************

 **************************************************************************

                    xk=(   0.00000,   0.00000,   0.42500  )

     Band symmetry, C_4v (4mm)  point group:

     e(  1 -  2) =    -17.68151  eV     2   -->   ?
     e(  3 -  3) =    -17.67572  eV     1   --> B_2  G_4 D_2'  
     e(  4 -  4) =    -17.62598  eV     1   -->   ?

 **************************************************************************

 **************************************************************************

                    xk=(   0.00000,   0.00000,   0.45000  )

     Band symmetry, C_4v (4mm)  point group:

     e(  1 -  2) =    -17.68249  eV     2   -->   ?
     e(  3 -  3) =    -17.67520  eV     1   --> B_2  G_4 D_2'  
     e(  4 -  4) =    -17.62392  eV     1   -->   ?

 **************************************************************************

 **************************************************************************

                    xk=(   0.00000,   0.00000,   0.47500  )

     Band symmetry, C_4v (4mm)  point group:

     e(  3 -  3) =    -17.67458  eV     1   --> B_2  G_4 D_2'  
     e(  4 -  4) =    -17.62176  eV     1   -->   ?

 **************************************************************************

 **************************************************************************

                    xk=(   0.00000,   0.00000,   0.50000  )

     Band symmetry, C_4v (4mm)  point group:

     e(  3 -  3) =    -17.67381  eV     1   --> B_2  G_4 D_2'  
     e(  4 -  4) =    -17.61965  eV     1   -->   ?

 **************************************************************************

 **************************************************************************

                    xk=(   0.00000,   0.00000,   0.52500  )

     Band symmetry, C_4v (4mm)  point group:

     e(  1 -  2) =    -17.68556  eV     2   --> E    G_5 D_5   
     e(  3 -  3) =    -17.67291  eV     1   --> B_2  G_4 D_2'  
     e(  4 -  4) =    -17.61728  eV     1   -->   ?

 **************************************************************************

 **************************************************************************

                    xk=(   0.00000,   0.00000,   0.55000  )

     Band symmetry, C_4v (4mm)  point group:

     e(  3 -  3) =    -17.67166  eV     1   --> B_2  G_4 D_2'  
     e(  4 -  4) =    -17.61487  eV     1   -->   ?

 **************************************************************************

 **************************************************************************

                    xk=(   0.00000,   0.00000,   0.57500  )

     Band symmetry, C_4v (4mm)  point group:

     e(  1 -  2) =    -17.68741  eV     2   --> E    G_5 D_5   
     e(  3 -  3) =    -17.67057  eV     1   --> B_2  G_4 D_2'  
     e(  4 -  4) =    -17.61236  eV     1   -->   ?

 **************************************************************************

 **************************************************************************

                    xk=(   0.00000,   0.00000,   0.60000  )

     Band symmetry, C_4v (4mm)  point group:

     e(  3 -  3) =    -17.66923  eV     1   --> B_2  G_4 D_2'  
     e(  4 -  4) =    -17.60984  eV     1   -->   ?

 **************************************************************************

 **************************************************************************

                    xk=(   0.00000,   0.00000,   0.62500  )

     Band symmetry, C_4v (4mm)  point group:

     e(  1 -  2) =    -17.68940  eV     2   --> E    G_5 D_5   
     e(  3 -  3) =    -17.66778  eV     1   -->   ?
     e(  4 -  4) =    -17.60713  eV     1   -->   ?

 **************************************************************************

 **************************************************************************

                    xk=(   0.00000,   0.00000,   0.65000  )

     Band symmetry, C_4v (4mm)  point group:

     e(  1 -  2) =    -17.69025  eV     2   --> E    G_5 D_5   
     e(  3 -  3) =    -17.66619  eV     1   --> B_2  G_4 D_2'  
     e(  4 -  4) =    -17.60443  eV     1   -->   ?

 **************************************************************************

 **************************************************************************

                    xk=(   0.00000,   0.00000,   0.67500  )

     Band symmetry, C_4v (4mm)  point group:

     e(  1 -  2) =    -17.69126  eV     2   --> E    G_5 D_5   
     e(  3 -  3) =    -17.66450  eV     1   -->   ?
     e(  4 -  4) =    -17.60172  eV     1   -->   ?

 **************************************************************************

 **************************************************************************

                    xk=(   0.00000,   0.00000,   0.70000  )

     Band symmetry, C_4v (4mm)  point group:

     e(  1 -  2) =    -17.69202  eV     2   --> E    G_5 D_5   
     e(  3 -  3) =    -17.66263  eV     1   -->   ?
     e(  4 -  4) =    -17.59890  eV     1   -->   ?

 **************************************************************************

 **************************************************************************

                    xk=(   0.00000,   0.00000,   0.72500  )

     Band symmetry, C_4v (4mm)  point group:

     e(  1 -  2) =    -17.69275  eV     2   --> E    G_5 D_5   
     e(  3 -  3) =    -17.66061  eV     1   -->   ?
     e(  4 -  4) =    -17.59555  eV     1   -->   ?

 **************************************************************************

 **************************************************************************

                    xk=(   0.00000,   0.00000,   0.75000  )

     Band symmetry, C_4v (4mm)  point group:

     e(  1 -  2) =    -17.69355  eV     2   -->   ?
     e(  3 -  3) =    -17.65851  eV     1   --> B_2  G_4 D_2'  
     e(  4 -  4) =    -17.59306  eV     1   -->   ?

 **************************************************************************

 **************************************************************************

                    xk=(   0.00000,   0.00000,   0.77500  )

     Band symmetry, C_4v (4mm)  point group:

     e(  3 -  3) =    -17.65616  eV     1   -->   ?
     e(  4 -  4) =    -17.59665  eV     1   -->   ?

 **************************************************************************

 **************************************************************************

                    xk=(   0.00000,   0.00000,   0.80000  )

     Band symmetry, C_4v (4mm)  point group:

     e(  1 -  2) =    -17.69449  eV     2   --> E    G_5 D_5   
     e(  3 -  3) =    -17.65365  eV     1   --> B_2  G_4 D_2'  
     e(  4 -  4) =    -17.60088  eV     1   -->   ?

 **************************************************************************

 **************************************************************************

                    xk=(   0.00000,   0.00000,   0.82500  )

     Band symmetry, C_4v (4mm)  point group:

     e(  1 -  2) =    -17.69503  eV     2   --> E    G_5 D_5   
     e(  3 -  3) =    -17.65114  eV     1   -->   ?
     e(  4 -  4) =    -17.60481  eV     1   -->   ?

 **************************************************************************

 **************************************************************************

                    xk=(   0.00000,   0.00000,   0.85000  )

     Band symmetry, C_4v (4mm)  point group:

     e(  3 -  3) =    -17.64851  eV     1   -->   ?
     e(  4 -  4) =    -17.60872  eV     1   -->   ?

 **************************************************************************

 **************************************************************************

                    xk=(   0.00000,   0.00000,   0.87500  )

     Band symmetry, C_4v (4mm)  point group:

     e(  1 -  2) =    -17.69607  eV     2   --> E    G_5 D_5   
     e(  3 -  3) =    -17.64576  eV     1   -->   ?
     e(  4 -  4) =    -17.61255  eV     1   -->   ?

 **************************************************************************

 **************************************************************************

                    xk=(   0.00000,   0.00000,   0.90000  )

     Band symmetry, C_4v (4mm)  point group:

     e(  1 -  2) =    -17.69635  eV     2   --> E    G_5 D_5   
     e(  3 -  3) =    -17.64300  eV     1   --> B_2  G_4 D_2'  
     e(  4 -  4) =    -17.61636  eV     1   -->   ?

 **************************************************************************

 **************************************************************************

                    xk=(   0.00000,   0.00000,   0.92500  )

     Band symmetry, C_4v (4mm)  point group:

     e(  1 -  2) =    -17.69659  eV     2   --> E    G_5 D_5   
     e(  3 -  3) =    -17.64000  eV     1   --> B_2  G_4 D_2'  
     e(  4 -  4) =    -17.62002  eV     1   -->   ?

 **************************************************************************

 **************************************************************************

                    xk=(   0.00000,   0.00000,   0.95000  )

     Band symmetry, C_4v (4mm)  point group:

     e(  1 -  2) =    -17.69654  eV     2   --> E    G_5 D_5   
     e(  3 -  3) =    -17.63680  eV     1   -->   ?
     e(  4 -  4) =    -17.62346  eV     1   -->   ?

 **************************************************************************

 **************************************************************************

                    xk=(   0.00000,   0.00000,   0.97500  )

     Band symmetry, C_4v (4mm)  point group:

     e(  1 -  2) =    -17.69664  eV     2   --> E    G_5 D_5   
     e(  3 -  3) =    -17.63360  eV     1   -->   ?
     e(  4 -  4) =    -17.62696  eV     1   -->   ?

 **************************************************************************

 **************************************************************************

                    xk=(   0.00000,   0.00000,   1.00000  )

     zone border point and non-symmorphic group 
     symmetry decomposition not available

 **************************************************************************

 **************************************************************************

                    xk=(  -0.00563,   0.00687,   1.00063  )

     point group C_1 (1)    
     there are  1 classes
     the character table:

       E    
A      1.00

     the symmetry operations in each class and the name of the first element:

     E        1
                                                                 

     Band symmetry, C_1 (1)     point group:

     e(  1 -  2) =    -17.69664  eV     2   -->   2 A              
     e(  3 -  3) =    -17.63036  eV     1   --> A              
     e(  4 -  4) =    -17.63016  eV     1   --> A              

 **************************************************************************

 **************************************************************************

                    xk=(  -0.01125,   0.01375,   1.00125  )

     Band symmetry, C_1 (1)     point group:

     e(  1 -  2) =    -17.69669  eV     2   -->   2 A              
     e(  3 -  3) =    -17.63040  eV     1   --> A              
     e(  4 -  4) =    -17.63003  eV     1   --> A              

 **************************************************************************

 **************************************************************************

                    xk=(  -0.01688,   0.02062,   1.00188  )

     Band symmetry, C_1 (1)     point group:

     e(  1 -  1) =    -17.69681  eV     1   --> A              
     e(  2 -  2) =    -17.69665  eV     1   --> A              
     e(  3 -  3) =    -17.63040  eV     1   --> A              
     e(  4 -  4) =    -17.62984  eV     1   --> A              

 **************************************************************************

 **************************************************************************

                    xk=(  -0.02250,   0.02750,   1.00250  )

     Band symmetry, C_1 (1)     point group:

     e(  1 -  1) =    -17.69693  eV     1   --> A              
     e(  2 -  2) =    -17.69665  eV     1   --> A              
     e(  3 -  3) =    -17.63046  eV     1   --> A              
     e(  4 -  4) =    -17.62956  eV     1   --> A              

 **************************************************************************

 **************************************************************************

                    xk=(  -0.02812,   0.03438,   1.00313  )

     Band symmetry, C_1 (1)     point group:

     e(  1 -  1) =    -17.69710  eV     1   --> A              
     e(  2 -  2) =    -17.69668  eV     1   --> A              
     e(  3 -  3) =    -17.63046  eV     1   --> A              
     e(  4 -  4) =    -17.62925  eV     1   --> A              

 **************************************************************************

 **************************************************************************

                    xk=(  -0.03375,   0.04125,   1.00375  )

     Band symmetry, C_1 (1)     point group:

     e(  1 -  1) =    -17.69728  eV     1   --> A              
     e(  2 -  2) =    -17.69670  eV     1   --> A              
     e(  3 -  3) =    -17.63045  eV     1   --> A              
     e(  4 -  4) =    -17.62883  eV     1   --> A              

 **************************************************************************

 **************************************************************************

                    xk=(  -0.03937,   0.04813,   1.00438  )

     Band symmetry, C_1 (1)     point group:

     e(  1 -  1) =    -17.69750  eV     1   --> A              
     e(  2 -  2) =    -17.69671  eV     1   --> A              
     e(  3 -  3) =    -17.63045  eV     1   --> A              
     e(  4 -  4) =    -17.62832  eV     1   --> A              

 **************************************************************************

 **************************************************************************

                    xk=(  -0.04500,   0.05500,   1.00500  )

     Band symmetry, C_1 (1)     point group:

     e(  1 -  1) =    -17.69774  eV     1   --> A              
     e(  2 -  2) =    -17.69672  eV     1   --> A              
     e(  3 -  3) =    -17.63045  eV     1   --> A              
     e(  4 -  4) =    -17.62776  eV     1   --> A              

 **************************************************************************

 **************************************************************************

                    xk=(  -0.05062,   0.06188,   1.00562  )

     Band symmetry, C_1 (1)     point group:

     e(  1 -  1) =    -17.69801  eV     1   --> A              
     e(  2 -  2) =    -17.69675  eV     1   --> A              
     e(  3 -  3) =    -17.63042  eV     1   --> A              
     e(  4 -  4) =    -17.62713  eV     1   --> A              

 **************************************************************************

 **************************************************************************

                    xk=(  -0.05625,   0.06875,   1.00625  )

     Band symmetry, C_1 (1)     point group:

     e(  1 -  1) =    -17.69836  eV     1   --> A              
     e(  2 -  2) =    -17.69681  eV     1   --> A              
     e(  3 -  3) =    -17.63042  eV     1   --> A              
     e(  4 -  4) =    -17.62645  eV     1   --> A              

 **************************************************************************

 **************************************************************************

                    xk=(  -0.06188,   0.07562,   1.00687  )

     Band symmetry, C_1 (1)     point group:

     e(  1 -  1) =    -17.69873  eV     1   --> A              
     e(  2 -  2) =    -17.69683  eV     1   --> A              
     e(  3 -  3) =    -17.63035  eV     1   --> A              
     e(  4 -  4) =    -17.62573  eV     1   --> A              

 **************************************************************************

 **************************************************************************

                    xk=(  -0.06750,   0.08250,   1.00750  )

     Band symmetry, C_1 (1)     point group:

     e(  1 -  1) =    -17.69912  eV     1   --> A              
     e(  2 -  2) =    -17.69684  eV     1   --> A              
     e(  3 -  3) =    -17.63038  eV     1   --> A              
     e(  4 -  4) =    -17.62491  eV     1   --> A              

 **************************************************************************

 **************************************************************************

                    xk=(  -0.07313,   0.08937,   1.00812  )

     Band symmetry, C_1 (1)     point group:

     e(  1 -  1) =    -17.69946  eV     1   --> A              
     e(  2 -  2) =    -17.69686  eV     1   --> A              
     e(  3 -  3) =    -17.63032  eV     1   --> A              
     e(  4 -  4) =    -17.62405  eV     1   --> A              

 **************************************************************************

 **************************************************************************

                    xk=(  -0.07875,   0.09625,   1.00875  )

     Band symmetry, C_1 (1)     point group:

     e(  1 -  1) =    -17.69988  eV     1   --> A              
     e(  2 -  2) =    -17.69687  eV     1   --> A              
     e(  3 -  3) =    -17.63033  eV     1   --> A              
     e(  4 -  4) =    -17.62308  eV     1   --> A              

 **************************************************************************

 **************************************************************************

                    xk=(  -0.08437,   0.10312,   1.00937  )

     Band symmetry, C_1 (1)     point group:

     e(  1 -  1) =    -17.70025  eV     1   --> A              
     e(  2 -  2) =    -17.69689  eV     1   --> A              
     e(  3 -  3) =    -17.63030  eV     1   --> A              
     e(  4 -  4) =    -17.62215  eV     1   --> A              

 **************************************************************************

 **************************************************************************

                    xk=(  -0.09000,   0.11000,   1.01000  )

     Band symmetry, C_1 (1)     point group:

     e(  1 -  1) =    -17.70058  eV     1   --> A              
     e(  2 -  2) =    -17.69691  eV     1   --> A              
     e(  3 -  3) =    -17.63025  eV     1   --> A              
     e(  4 -  4) =    -17.62111  eV     1   --> A              

 **************************************************************************

 **************************************************************************

                    xk=(  -0.09563,   0.11688,   1.01063  )

     Band symmetry, C_1 (1)     point group:

     e(  1 -  1) =    -17.70092  eV     1   --> A              
     e(  2 -  2) =    -17.69692  eV     1   --> A              
     e(  3 -  3) =    -17.63020  eV     1   --> A              
     e(  4 -  4) =    -17.62004  eV     1   --> A              

 **************************************************************************

 **************************************************************************

                    xk=(  -0.10125,   0.12375,   1.01125  )

     Band symmetry, C_1 (1)     point group:

     e(  1 -  1) =    -17.70127  eV     1   --> A              
     e(  2 -  2) =    -17.69694  eV     1   --> A              
     e(  3 -  3) =    -17.63015  eV     1   --> A              
     e(  4 -  4) =    -17.61889  eV     1   --> A              

 **************************************************************************

 **************************************************************************

                    xk=(  -0.10687,   0.13063,   1.01188  )

     Band symmetry, C_1 (1)     point group:

     e(  1 -  1) =    -17.70166  eV     1   --> A              
     e(  2 -  2) =    -17.69701  eV     1   --> A              
     e(  3 -  3) =    -17.63008  eV     1   --> A              
     e(  4 -  4) =    -17.61770  eV     1   --> A              

 **************************************************************************

 **************************************************************************

                    xk=(  -0.11250,   0.13750,   1.01250  )

     Band symmetry, C_1 (1)     point group:

     e(  1 -  1) =    -17.70202  eV     1   --> A              
     e(  2 -  2) =    -17.69703  eV     1   --> A              
     e(  3 -  3) =    -17.62999  eV     1   --> A              
     e(  4 -  4) =    -17.61649  eV     1   --> A              

 **************************************************************************

 **************************************************************************

                    xk=(  -0.11813,   0.14437,   1.01313  )

     Band symmetry, C_1 (1)     point group:

     e(  1 -  1) =    -17.70246  eV     1   --> A              
     e(  2 -  2) =    -17.69705  eV     1   --> A              
     e(  3 -  3) =    -17.62993  eV     1   --> A              
     e(  4 -  4) =    -17.61527  eV     1   --> A              

 **************************************************************************

 **************************************************************************

                    xk=(  -0.12375,   0.15125,   1.01375  )

     Band symmetry, C_1 (1)     point group:

     e(  1 -  1) =    -17.70283  eV     1   --> A              
     e(  2 -  2) =    -17.69707  eV     1   --> A              
     e(  3 -  3) =    -17.62988  eV     1   --> A              
     e(  4 -  4) =    -17.61402  eV     1   --> A              

 **************************************************************************

 **************************************************************************

                    xk=(  -0.12937,   0.15813,   1.01438  )

     Band symmetry, C_1 (1)     point group:

     e(  1 -  1) =    -17.70326  eV     1   --> A              
     e(  2 -  2) =    -17.69708  eV     1   --> A              
     e(  3 -  3) =    -17.62986  eV     1   --> A              
     e(  4 -  4) =    -17.61266  eV     1   --> A              

 **************************************************************************

 **************************************************************************

                    xk=(  -0.13500,   0.16500,   1.01500  )

     Band symmetry, C_1 (1)     point group:

     e(  1 -  1) =    -17.70365  eV     1   --> A              
     e(  2 -  2) =    -17.69710  eV     1   --> A              
     e(  3 -  3) =    -17.62981  eV     1   --> A              
     e(  4 -  4) =    -17.61139  eV     1   --> A              

 **************************************************************************

 **************************************************************************

                    xk=(  -0.14062,   0.17188,   1.01562  )

     Band symmetry, C_1 (1)     point group:

     e(  1 -  1) =    -17.70405  eV     1   --> A              
     e(  2 -  2) =    -17.69712  eV     1   --> A              
     e(  3 -  3) =    -17.62974  eV     1   --> A              
     e(  4 -  4) =    -17.61009  eV     1   --> A              

 **************************************************************************

 **************************************************************************

                    xk=(  -0.14625,   0.17875,   1.01625  )

     Band symmetry, C_1 (1)     point group:

     e(  1 -  1) =    -17.70442  eV     1   --> A              
     e(  2 -  2) =    -17.69710  eV     1   --> A              
     e(  3 -  3) =    -17.62970  eV     1   --> A              
     e(  4 -  4) =    -17.60864  eV     1   --> A              

 **************************************************************************

 **************************************************************************

                    xk=(  -0.15187,   0.18563,   1.01687  )

     Band symmetry, C_1 (1)     point group:

     e(  1 -  1) =    -17.70483  eV     1   --> A              
     e(  2 -  2) =    -17.69712  eV     1   --> A              
     e(  3 -  3) =    -17.62966  eV     1   --> A              
     e(  4 -  4) =    -17.60721  eV     1   --> A              

 **************************************************************************

 **************************************************************************

                    xk=(  -0.15750,   0.19250,   1.01750  )

     Band symmetry, C_1 (1)     point group:

     e(  1 -  1) =    -17.70518  eV     1   --> A              
     e(  2 -  2) =    -17.69714  eV     1   --> A              
     e(  3 -  3) =    -17.62957  eV     1   --> A              
     e(  4 -  4) =    -17.60579  eV     1   --> A              

 **************************************************************************

 **************************************************************************

                    xk=(  -0.16312,   0.19938,   1.01812  )

     Band symmetry, C_1 (1)     point group:

     e(  1 -  1) =    -17.70555  eV     1   --> A              
     e(  2 -  2) =    -17.69715  eV     1   --> A              
     e(  3 -  3) =    -17.62953  eV     1   --> A              
     e(  4 -  4) =    -17.60432  eV     1   --> A              

 **************************************************************************

 **************************************************************************

                    xk=(  -0.16875,   0.20625,   1.01875  )

     Band symmetry, C_1 (1)     point group:

     e(  1 -  1) =    -17.70591  eV     1   --> A              
     e(  2 -  2) =    -17.69726  eV     1   --> A              
     e(  3 -  3) =    -17.62950  eV     1   --> A              
     e(  4 -  4) =    -17.60282  eV     1   --> A              

 **************************************************************************

 **************************************************************************

                    xk=(  -0.17438,   0.21312,   1.01937  )

     Band symmetry, C_1 (1)     point group:

     e(  1 -  1) =    -17.70623  eV     1   --> A              
     e(  2 -  2) =    -17.69729  eV     1   --> A              
     e(  3 -  3) =    -17.62944  eV     1   --> A              
     e(  4 -  4) =    -17.60130  eV     1   --> A              

 **************************************************************************

 **************************************************************************

                    xk=(  -0.18000,   0.22000,   1.02000  )

     Band symmetry, C_1 (1)     point group:

     e(  1 -  1) =    -17.70652  eV     1   --> A              
     e(  2 -  2) =    -17.69727  eV     1   --> A              
     e(  3 -  3) =    -17.62938  eV     1   --> A              
     e(  4 -  4) =    -17.59963  eV     1   --> A              

 **************************************************************************

 **************************************************************************

                    xk=(  -0.18563,   0.22687,   1.02062  )

     Band symmetry, C_1 (1)     point group:

     e(  1 -  1) =    -17.70682  eV     1   --> A              
     e(  2 -  2) =    -17.69728  eV     1   --> A              
     e(  3 -  3) =    -17.62933  eV     1   --> A              
     e(  4 -  4) =    -17.59813  eV     1   --> A              

 **************************************************************************

 **************************************************************************

                    xk=(  -0.19125,   0.23375,   1.02125  )

     Band symmetry, C_1 (1)     point group:

     e(  1 -  1) =    -17.70711  eV     1   --> A              
     e(  2 -  2) =    -17.69730  eV     1   --> A              
     e(  3 -  3) =    -17.62929  eV     1   --> A              
     e(  4 -  4) =    -17.59656  eV     1   --> A              

 **************************************************************************

 **************************************************************************

                    xk=(  -0.19687,   0.24063,   1.02188  )

     Band symmetry, C_1 (1)     point group:

     e(  1 -  1) =    -17.70735  eV     1   --> A              
     e(  2 -  2) =    -17.69731  eV     1   --> A              
     e(  3 -  3) =    -17.62924  eV     1   --> A              
     e(  4 -  4) =    -17.59492  eV     1   --> A              

 **************************************************************************

 **************************************************************************

                    xk=(  -0.20250,   0.24750,   1.02250  )

     Band symmetry, C_1 (1)     point group:

     e(  1 -  1) =    -17.70760  eV     1   --> A              
     e(  2 -  2) =    -17.69728  eV     1   --> A              
     e(  3 -  3) =    -17.62918  eV     1   --> A              
     e(  4 -  4) =    -17.59332  eV     1   --> A              

 **************************************************************************

 **************************************************************************

                    xk=(  -0.20812,   0.25438,   1.02313  )

     Band symmetry, C_1 (1)     point group:

     e(  1 -  1) =    -17.70783  eV     1   --> A              
     e(  2 -  2) =    -17.69730  eV     1   --> A              
     e(  3 -  3) =    -17.62911  eV     1   --> A              
     e(  4 -  4) =    -17.59172  eV     1   --> A              

 **************************************************************************

 **************************************************************************

                    xk=(  -0.21375,   0.26125,   1.02375  )

     Band symmetry, C_1 (1)     point group:

     e(  1 -  1) =    -17.70805  eV     1   --> A              
     e(  2 -  2) =    -17.69732  eV     1   --> A              
     e(  3 -  3) =    -17.62913  eV     1   --> A              
     e(  4 -  4) =    -17.59006  eV     1   --> A              

 **************************************************************************

 **************************************************************************

                    xk=(  -0.21937,   0.26813,   1.02438  )

     Band symmetry, C_1 (1)     point group:

     e(  1 -  1) =    -17.70826  eV     1   --> A              
     e(  2 -  2) =    -17.69734  eV     1   --> A              
     e(  3 -  3) =    -17.62908  eV     1   --> A              
     e(  4 -  4) =    -17.58852  eV     1   --> A              

 **************************************************************************

 **************************************************************************

                    xk=(  -0.22500,   0.27500,   1.02500  )

     Band symmetry, C_1 (1)     point group:

     e(  1 -  1) =    -17.70842  eV     1   --> A              
     e(  2 -  2) =    -17.69736  eV     1   --> A              
     e(  3 -  3) =    -17.62902  eV     1   --> A              
     e(  4 -  4) =    -17.58690  eV     1   --> A              

 **************************************************************************

     BANDS        :      4.84s CPU      5.41s WALL


   This run was terminated on:  12:23:55  28Mar2022            

=------------------------------------------------------------------------------=
   JOB DONE.
=------------------------------------------------------------------------------=
