
     Program PWSCF v.6.7MaX starts on 25Mar2022 at 18:54:11 

     This program is part of the open-source Quantum ESPRESSO suite
     for quantum simulation of materials; please cite
         "P. Giannozzi et al., J. Phys.:Condens. Matter 21 395502 (2009);
         "P. Giannozzi et al., J. Phys.:Condens. Matter 29 465901 (2017);
          URL http://www.quantum-espresso.org", 
     in publications or presentations arising from this work. More details at
     http://www.quantum-espresso.org/quote

     Parallel version (MPI), running on     1 processors

     MPI processes distributed on     1 nodes
     Waiting for input...
     Reading input from standard input
     Message from routine read_cards :
     DEPRECATED: no units specified in ATOMIC_POSITIONS card
     Message from routine read_cards :
     ATOMIC_POSITIONS: units set to alat

     Current dimensions of program PWSCF are:
     Max number of different atomic species (ntypx) = 10
     Max number of k-points (npk) =  40000
     Max angular momentum in pseudopotentials (lmaxx) =  3
     file Sn.pbe-dn-rrkjus_psl.1.0.0.UPF: wavefunction(s)  5S 4D renormalized

     Subspace diagonalization in iterative solution of the eigenvalue problem:
     a serial algorithm will be used


     G-vector sticks info
     --------------------
     sticks:   dense  smooth     PW     G-vecs:    dense   smooth      PW
     Sum         199     199     73                 1893     1893     387



     bravais-lattice index     =            2
     lattice parameter (alat)  =      11.0000  a.u.
     unit-cell volume          =     332.7500 (a.u.)^3
     number of atoms/cell      =            2
     number of atomic types    =            1
     number of electrons       =        28.00
     number of Kohn-Sham states=           14
     kinetic-energy cutoff     =      12.0000  Ry
     charge density cutoff     =      48.0000  Ry
     scf convergence threshold =      1.0E-08
     mixing beta               =       0.7000
     number of iterations used =            8  plain     mixing
     Exchange-correlation= PBE
                           (   1   4   3   4   0   0   0)

     celldm(1)=  11.000000  celldm(2)=   0.000000  celldm(3)=   0.000000
     celldm(4)=   0.000000  celldm(5)=   0.000000  celldm(6)=   0.000000

     crystal axes: (cart. coord. in units of alat)
               a(1) = (  -0.500000   0.000000   0.500000 )  
               a(2) = (   0.000000   0.500000   0.500000 )  
               a(3) = (  -0.500000   0.500000   0.000000 )  

     reciprocal axes: (cart. coord. in units 2 pi/alat)
               b(1) = ( -1.000000 -1.000000  1.000000 )  
               b(2) = (  1.000000  1.000000  1.000000 )  
               b(3) = ( -1.000000  1.000000 -1.000000 )  


     PseudoPot. # 1 for Sn read from file:
     ./Raw_Inputs/Sn.pbe-dn-rrkjus_psl.1.0.0.UPF
     MD5 check sum: 72e22d5a9e1ec4fde6a02e1f963898e9
     Pseudo is Ultrasoft + core correction, Zval = 14.0
     Generated using &quot;atomic&quot; code by A. Dal Corso  v.6.3
     Using radial grid of 1243 points,  6 beta functions with: 
                l(1) =   0
                l(2) =   0
                l(3) =   1
                l(4) =   1
                l(5) =   2
                l(6) =   2
     Q(r) pseudized with 0 coefficients 


     atomic species   valence    mass     pseudopotential
        Sn            14.00   118.71000     Sn( 1.00)

     48 Sym. Ops., with inversion, found (24 have fractional translation)



   Cartesian axes

     site n.     atom                  positions (alat units)
         1           Sn  tau(   1) = (   0.0000000   0.0000000   0.0000000  )
         2           Sn  tau(   2) = (   0.2500000   0.2500000   0.2500000  )

     number of k points=     8
                       cart. coord. in units 2pi/alat
        k(    1) = (   0.0000000   0.0000000   0.0000000), wk =   0.0312500
        k(    2) = (  -0.2500000   0.2500000  -0.2500000), wk =   0.2500000
        k(    3) = (   0.5000000  -0.5000000   0.5000000), wk =   0.1250000
        k(    4) = (   0.0000000   0.5000000   0.0000000), wk =   0.1875000
        k(    5) = (   0.7500000  -0.2500000   0.7500000), wk =   0.7500000
        k(    6) = (   0.5000000   0.0000000   0.5000000), wk =   0.3750000
        k(    7) = (   0.0000000  -1.0000000   0.0000000), wk =   0.0937500
        k(    8) = (  -0.5000000  -1.0000000   0.0000000), wk =   0.1875000

     Dense  grid:     1893 G-vectors     FFT dimensions: (  20,  20,  20)

     Estimated max dynamical RAM per process >       7.90 MB

     Check: negative core charge=   -0.000415

     Initial potential from superposition of free atoms

     starting charge   27.99723, renormalised to   28.00000

     negative rho (up, down):  1.792E-02 0.000E+00
     Starting wfcs are   18 randomized atomic wfcs

     total cpu time spent up to now is        0.6 secs

     Self-consistent Calculation

     iteration #  1     ecut=    12.00 Ry     beta= 0.70
     Davidson diagonalization with overlap
     ethr =  1.00E-02,  avg # of iterations =  5.2

     total cpu time spent up to now is        0.8 secs

     total energy              =    -244.96202906 Ry
     estimated scf accuracy    <      51.18188713 Ry

     iteration #  2     ecut=    12.00 Ry     beta= 0.70
     Davidson diagonalization with overlap
     ethr =  1.00E-02,  avg # of iterations =  7.1

     total cpu time spent up to now is        0.9 secs

     total energy              =    -256.74648170 Ry
     estimated scf accuracy    <       6.53356323 Ry

     iteration #  3     ecut=    12.00 Ry     beta= 0.70
     Davidson diagonalization with overlap
     ethr =  1.00E-02,  avg # of iterations =  2.0

     negative rho (up, down):  3.842E-04 0.000E+00

     total cpu time spent up to now is        1.0 secs

     total energy              =    -256.86912631 Ry
     estimated scf accuracy    <       0.53759819 Ry

     iteration #  4     ecut=    12.00 Ry     beta= 0.70
     Davidson diagonalization with overlap
     ethr =  1.92E-03,  avg # of iterations =  3.1

     negative rho (up, down):  9.976E-05 0.000E+00

     total cpu time spent up to now is        1.1 secs

     total energy              =    -256.95192704 Ry
     estimated scf accuracy    <       0.04324088 Ry

     iteration #  5     ecut=    12.00 Ry     beta= 0.70
     Davidson diagonalization with overlap
     ethr =  1.54E-04,  avg # of iterations =  3.8

     negative rho (up, down):  9.819E-05 0.000E+00

     total cpu time spent up to now is        1.3 secs

     total energy              =    -257.04885732 Ry
     estimated scf accuracy    <       0.00221671 Ry

     iteration #  6     ecut=    12.00 Ry     beta= 0.70
     Davidson diagonalization with overlap
     ethr =  7.92E-06,  avg # of iterations =  3.9

     negative rho (up, down):  1.036E-04 0.000E+00

     total cpu time spent up to now is        1.4 secs

     total energy              =    -257.04892481 Ry
     estimated scf accuracy    <       0.00120318 Ry

     iteration #  7     ecut=    12.00 Ry     beta= 0.70
     Davidson diagonalization with overlap
     ethr =  4.30E-06,  avg # of iterations =  2.0

     negative rho (up, down):  1.016E-04 0.000E+00

     total cpu time spent up to now is        1.5 secs

     total energy              =    -257.04919586 Ry
     estimated scf accuracy    <       0.00012406 Ry

     iteration #  8     ecut=    12.00 Ry     beta= 0.70
     Davidson diagonalization with overlap
     ethr =  4.43E-07,  avg # of iterations =  4.4

     negative rho (up, down):  1.008E-04 0.000E+00

     total cpu time spent up to now is        1.6 secs

     total energy              =    -257.05422506 Ry
     estimated scf accuracy    <       0.00002094 Ry

     iteration #  9     ecut=    12.00 Ry     beta= 0.70
     Davidson diagonalization with overlap
     ethr =  7.48E-08,  avg # of iterations =  2.6

     negative rho (up, down):  1.064E-04 0.000E+00

     total cpu time spent up to now is        1.7 secs

     total energy              =    -257.05422953 Ry
     estimated scf accuracy    <       0.00002108 Ry

     iteration # 10     ecut=    12.00 Ry     beta= 0.70
     Davidson diagonalization with overlap
     ethr =  7.48E-08,  avg # of iterations =  1.9

     negative rho (up, down):  1.035E-04 0.000E+00

     total cpu time spent up to now is        1.8 secs

     total energy              =    -257.05422262 Ry
     estimated scf accuracy    <       0.00002154 Ry

     iteration # 11     ecut=    12.00 Ry     beta= 0.70
     Davidson diagonalization with overlap
     ethr =  7.48E-08,  avg # of iterations =  2.0

     negative rho (up, down):  1.038E-04 0.000E+00

     total cpu time spent up to now is        1.9 secs

     total energy              =    -257.05422471 Ry
     estimated scf accuracy    <       0.00001038 Ry

     iteration # 12     ecut=    12.00 Ry     beta= 0.70
     Davidson diagonalization with overlap
     ethr =  3.71E-08,  avg # of iterations =  1.0

     negative rho (up, down):  1.028E-04 0.000E+00

     total cpu time spent up to now is        2.0 secs

     total energy              =    -257.05422194 Ry
     estimated scf accuracy    <       0.00001157 Ry

     iteration # 13     ecut=    12.00 Ry     beta= 0.70
     Davidson diagonalization with overlap
     ethr =  3.71E-08,  avg # of iterations =  1.1

     negative rho (up, down):  1.021E-04 0.000E+00

     total cpu time spent up to now is        2.0 secs

     total energy              =    -257.05422174 Ry
     estimated scf accuracy    <       0.00000203 Ry

     iteration # 14     ecut=    12.00 Ry     beta= 0.70
     Davidson diagonalization with overlap
     ethr =  7.24E-09,  avg # of iterations =  2.5

     negative rho (up, down):  1.021E-04 0.000E+00

     total cpu time spent up to now is        2.1 secs

     total energy              =    -257.05422203 Ry
     estimated scf accuracy    <       0.00000011 Ry

     iteration # 15     ecut=    12.00 Ry     beta= 0.70
     Davidson diagonalization with overlap
     ethr =  4.06E-10,  avg # of iterations =  4.6

     negative rho (up, down):  1.021E-04 0.000E+00

     total cpu time spent up to now is        2.3 secs

     total energy              =    -257.05422202 Ry
     estimated scf accuracy    <       0.00000006 Ry

     iteration # 16     ecut=    12.00 Ry     beta= 0.70
     Davidson diagonalization with overlap
     ethr =  2.13E-10,  avg # of iterations =  2.0

     negative rho (up, down):  1.020E-04 0.000E+00

     total cpu time spent up to now is        2.3 secs

     total energy              =    -257.05422203 Ry
     estimated scf accuracy    <       0.00000003 Ry

     iteration # 17     ecut=    12.00 Ry     beta= 0.70
     Davidson diagonalization with overlap
     ethr =  9.01E-11,  avg # of iterations =  1.1

     negative rho (up, down):  1.022E-04 0.000E+00

     total cpu time spent up to now is        2.4 secs

     total energy              =    -257.05422201 Ry
     estimated scf accuracy    <       0.00000003 Ry

     iteration # 18     ecut=    12.00 Ry     beta= 0.70
     Davidson diagonalization with overlap
     ethr =  9.01E-11,  avg # of iterations =  3.1

     negative rho (up, down):  1.021E-04 0.000E+00

     total cpu time spent up to now is        2.6 secs

     total energy              =    -257.05422201 Ry
     estimated scf accuracy    <       0.00000007 Ry

     iteration # 19     ecut=    12.00 Ry     beta= 0.70
     Davidson diagonalization with overlap
     ethr =  9.01E-11,  avg # of iterations =  1.2

     negative rho (up, down):  1.021E-04 0.000E+00

     total cpu time spent up to now is        2.6 secs

     total energy              =    -257.05422200 Ry
     estimated scf accuracy    <       0.00000003 Ry

     iteration # 20     ecut=    12.00 Ry     beta= 0.70
     Davidson diagonalization with overlap
     ethr =  9.01E-11,  avg # of iterations =  2.1

     negative rho (up, down):  1.021E-04 0.000E+00

     total cpu time spent up to now is        2.7 secs

     End of self-consistent calculation

          k = 0.0000 0.0000 0.0000 (   259 PWs)   bands (ev):

    -8.6347  -0.3357   1.8409   1.8409   1.8409   2.6483   2.6483   2.6483
     3.4856   3.4856  10.1738  10.1738  10.1738  11.4195

          k =-0.2500 0.2500-0.2500 (   238 PWs)   bands (ev):

    -8.1426  -2.1129   2.3094   2.3094   5.4034   6.5498   6.5498   6.7681
     7.9099   7.9099   9.5527   9.5527  10.7876  10.7876

          k = 0.5000-0.5000 0.5000 (   242 PWs)   bands (ev):

    -7.6201  -3.8511   1.8133   1.8133   5.7973   6.5875   6.5875   6.7336
     6.7336   6.7464   7.7806   8.4687   8.4687  11.4363

          k = 0.0000 0.5000 0.0000 (   234 PWs)   bands (ev):

    -7.8750  -2.8992   2.9468   2.9468   5.6987   6.0310   6.4736   7.1246
     7.8821   7.8821   9.4106  10.7708  11.8010  11.8010

          k = 0.7500-0.2500 0.7500 (   236 PWs)   bands (ev):

    -6.9381  -4.4447   2.6717   3.0878   6.0536   6.7000   7.2397   7.2587
     8.1824   8.6943   9.6979   9.9569  10.3805  11.0388

          k = 0.5000 0.0000 0.5000 (   238 PWs)   bands (ev):

    -7.3004  -3.8404   2.5317   3.1619   6.1787   6.3214   6.5644   6.7597
     7.5622   8.3482   9.6489  10.5062  10.7296  10.8758

          k = 0.0000-1.0000 0.0000 (   222 PWs)   bands (ev):

    -5.7880  -5.7880   3.3685   3.3685   7.7573   7.7573   8.3924   8.3924
     9.7155   9.7155  11.5668  11.5668  11.6225  11.6225

          k =-0.5000-1.0000 0.0000 (   224 PWs)   bands (ev):

    -5.6081  -5.6081   3.0358   3.0358   7.0667   7.0667   8.2025   8.2025
    10.3071  10.3071  10.5174  10.5174  12.4879  12.4879

     highest occupied level (ev):    12.4879

!    total energy              =    -257.05422201 Ry
     estimated scf accuracy    <          1.2E-10 Ry

     The total energy is the sum of the following terms:
     one-electron contribution =     -18.94085682 Ry
     hartree contribution      =      35.15866223 Ry
     xc contribution           =     -81.30613349 Ry
     ewald contribution        =    -191.96589394 Ry

     convergence has been achieved in  20 iterations

     Writing output data file ./Raw_data/Sn.save/

     init_run     :      0.20s CPU      0.21s WALL (       1 calls)
     electrons    :      1.59s CPU      2.16s WALL (       1 calls)

     Called by init_run:
     wfcinit      :      0.03s CPU      0.03s WALL (       1 calls)
     potinit      :      0.00s CPU      0.01s WALL (       1 calls)
     hinit0       :      0.16s CPU      0.16s WALL (       1 calls)

     Called by electrons:
     c_bands      :      1.22s CPU      1.70s WALL (      20 calls)
     sum_band     :      0.21s CPU      0.22s WALL (      20 calls)
     v_of_rho     :      0.05s CPU      0.05s WALL (      21 calls)
     newd         :      0.08s CPU      0.08s WALL (      21 calls)
     mix_rho      :      0.01s CPU      0.01s WALL (      20 calls)

     Called by c_bands:
     init_us_2    :      0.03s CPU      0.03s WALL (     328 calls)
     cegterg      :      1.04s CPU      1.09s WALL (     160 calls)

     Called by *egterg:
     cdiaghg      :      0.12s CPU      0.13s WALL (     615 calls)
     h_psi        :      0.60s CPU      0.63s WALL (     623 calls)
     s_psi        :      0.09s CPU      0.09s WALL (     623 calls)
     g_psi        :      0.01s CPU      0.01s WALL (     455 calls)

     Called by h_psi:
     h_psi:calbec :      0.08s CPU      0.09s WALL (     623 calls)
     vloc_psi     :      0.43s CPU      0.44s WALL (     623 calls)
     add_vuspsi   :      0.09s CPU      0.09s WALL (     623 calls)

     General routines
     calbec       :      0.11s CPU      0.11s WALL (     783 calls)
     fft          :      0.01s CPU      0.01s WALL (     231 calls)
     ffts         :      0.00s CPU      0.00s WALL (      20 calls)
     fftw         :      0.31s CPU      0.33s WALL (   14698 calls)

     Parallel routines

     PWSCF        :      1.96s CPU      3.05s WALL


   This run was terminated on:  18:54:14  25Mar2022            

=------------------------------------------------------------------------------=
   JOB DONE.
=------------------------------------------------------------------------------=
